VARIABLES="U","Y"
ZONE F=POINT
I=128
0.00000000	0.00000000
-0.00587787	0.00787402
-0.01155182	0.01574803
-0.01703910	0.02362205
-0.02235588	0.03149606
-0.02751734	0.03937008
-0.03253772	0.04724409
-0.03743039	0.05511811
-0.04220790	0.06299213
-0.04688202	0.07086614
-0.05146378	0.07874016
-0.05596353	0.08661417
-0.06039091	0.09448819
-0.06475494	0.10236220
-0.06906401	0.11023622
-0.07332588	0.11811024
-0.07754773	0.12598425
-0.08173613	0.13385827
-0.08589705	0.14173228
-0.09003587	0.14960630
-0.09415739	0.15748031
-0.09826579	0.16535433
-0.10236464	0.17322835
-0.10645689	0.18110236
-0.11054486	0.18897638
-0.11463021	0.19685039
-0.11871395	0.20472441
-0.12279638	0.21259843
-0.12687714	0.22047244
-0.13095511	0.22834646
-0.13502846	0.23622047
-0.13909463	0.24409449
-0.14315025	0.25196850
-0.14719121	0.25984252
-0.15121259	0.26771654
-0.15520870	0.27559055
-0.15917302	0.28346457
-0.16309826	0.29133858
-0.16697631	0.29921260
-0.17079829	0.30708661
-0.17455453	0.31496063
-0.17823463	0.32283465
-0.18182746	0.33070866
-0.18532117	0.33858268
-0.18870329	0.34645669
-0.19196073	0.35433071
-0.19507985	0.36220472
-0.19804652	0.37007874
-0.20084620	0.37795276
-0.20346400	0.38582677
-0.20588477	0.39370079
-0.20809318	0.40157480
-0.21007385	0.40944882
-0.21181141	0.41732283
-0.21329062	0.42519685
-0.21449649	0.43307087
-0.21541437	0.44094488
-0.21603010	0.44881890
-0.21633007	0.45669291
-0.21630137	0.46456693
-0.21593187	0.47244094
-0.21521037	0.48031496
-0.21412664	0.48818898
-0.21267155	0.49606299
-0.21083712	0.50393701
-0.20861663	0.51181102
-0.20600464	0.51968504
-0.20299705	0.52755906
-0.19959115	0.53543307
-0.19578560	0.54330709
-0.19158046	0.55118110
-0.18697715	0.55905512
-0.18197842	0.56692913
-0.17658833	0.57480315
-0.17081212	0.58267717
-0.16465616	0.59055118
-0.15812784	0.59842520
-0.15123543	0.60629921
-0.14398794	0.61417323
-0.13639496	0.62204724
-0.12846648	0.62992126
-0.12021266	0.63779528
-0.11164367	0.64566929
-0.10276938	0.65354331
-0.09359915	0.66141732
-0.08414155	0.66929134
-0.07440400	0.67716535
-0.06439252	0.68503937
-0.05411130	0.69291339
-0.04356238	0.70078740
-0.03274520	0.70866142
-0.02165617	0.71653543
-0.01028820	0.72440945
0.00136983	0.73228346
0.01333358	0.74015748
0.02562387	0.74803150
0.03826724	0.75590551
0.05129657	0.76377953
0.06475176	0.77165354
0.07868029	0.77952756
0.09313788	0.78740157
0.10818901	0.79527559
0.12390737	0.80314961
0.14037626	0.81102362
0.15768870	0.81889764
0.17594739	0.82677165
0.19526437	0.83464567
0.21576025	0.84251969
0.23756306	0.85039370
0.26080652	0.85826772
0.28562771	0.86614173
0.31216407	0.87401575
0.34054959	0.88188976
0.37091025	0.88976378
0.40335866	0.89763780
0.43798784	0.90551181
0.47486437	0.91338583
0.51402095	0.92125984
0.55544863	0.92913386
0.59908894	0.93700787
0.64482653	0.94488189
0.69248257	0.95275591
0.74180972	0.96062992
0.79248933	0.96850394
0.84413173	0.97637795
0.89628048	0.98425197
0.94842179	0.99212598
1.00000000	1.00000000
