VARIABLES="X","Y","U","V","P"
ZONE  F=POINT
I=128, J=128
0.00000000	0.00000000	0.00000000	0.00000000	1.01638462
0.00787402	0.00000000	0.00000000	0.00000000	1.01638858
0.01574803	0.00000000	0.00000000	0.00000000	1.01638699
0.02362205	0.00000000	0.00000000	0.00000000	1.01636367
0.03149606	0.00000000	0.00000000	0.00000000	1.01631614
0.03937008	0.00000000	0.00000000	0.00000000	1.01624595
0.04724409	0.00000000	0.00000000	0.00000000	1.01615617
0.05511811	0.00000000	0.00000000	0.00000000	1.01605030
0.06299213	0.00000000	0.00000000	0.00000000	1.01593174
0.07086614	0.00000000	0.00000000	0.00000000	1.01580368
0.07874016	0.00000000	0.00000000	0.00000000	1.01566896
0.08661417	0.00000000	0.00000000	0.00000000	1.01553009
0.09448819	0.00000000	0.00000000	0.00000000	1.01538930
0.10236220	0.00000000	0.00000000	0.00000000	1.01524852
0.11023622	0.00000000	0.00000000	0.00000000	1.01510939
0.11811024	0.00000000	0.00000000	0.00000000	1.01497337
0.12598425	0.00000000	0.00000000	0.00000000	1.01484169
0.13385827	0.00000000	0.00000000	0.00000000	1.01471539
0.14173228	0.00000000	0.00000000	0.00000000	1.01459536
0.14960630	0.00000000	0.00000000	0.00000000	1.01448236
0.15748031	0.00000000	0.00000000	0.00000000	1.01437701
0.16535433	0.00000000	0.00000000	0.00000000	1.01427984
0.17322835	0.00000000	0.00000000	0.00000000	1.01419129
0.18110236	0.00000000	0.00000000	0.00000000	1.01411171
0.18897638	0.00000000	0.00000000	0.00000000	1.01404139
0.19685039	0.00000000	0.00000000	0.00000000	1.01398056
0.20472441	0.00000000	0.00000000	0.00000000	1.01392942
0.21259843	0.00000000	0.00000000	0.00000000	1.01388812
0.22047244	0.00000000	0.00000000	0.00000000	1.01385677
0.22834646	0.00000000	0.00000000	0.00000000	1.01383547
0.23622047	0.00000000	0.00000000	0.00000000	1.01382428
0.24409449	0.00000000	0.00000000	0.00000000	1.01382326
0.25196850	0.00000000	0.00000000	0.00000000	1.01383246
0.25984252	0.00000000	0.00000000	0.00000000	1.01385190
0.26771654	0.00000000	0.00000000	0.00000000	1.01388160
0.27559055	0.00000000	0.00000000	0.00000000	1.01392157
0.28346457	0.00000000	0.00000000	0.00000000	1.01397181
0.29133858	0.00000000	0.00000000	0.00000000	1.01403234
0.29921260	0.00000000	0.00000000	0.00000000	1.01410313
0.30708661	0.00000000	0.00000000	0.00000000	1.01418417
0.31496063	0.00000000	0.00000000	0.00000000	1.01427543
0.32283465	0.00000000	0.00000000	0.00000000	1.01437688
0.33070866	0.00000000	0.00000000	0.00000000	1.01448846
0.33858268	0.00000000	0.00000000	0.00000000	1.01461013
0.34645669	0.00000000	0.00000000	0.00000000	1.01474180
0.35433071	0.00000000	0.00000000	0.00000000	1.01488338
0.36220472	0.00000000	0.00000000	0.00000000	1.01503475
0.37007874	0.00000000	0.00000000	0.00000000	1.01519579
0.37795276	0.00000000	0.00000000	0.00000000	1.01536633
0.38582677	0.00000000	0.00000000	0.00000000	1.01554619
0.39370079	0.00000000	0.00000000	0.00000000	1.01573516
0.40157480	0.00000000	0.00000000	0.00000000	1.01593300
0.40944882	0.00000000	0.00000000	0.00000000	1.01613944
0.41732283	0.00000000	0.00000000	0.00000000	1.01635415
0.42519685	0.00000000	0.00000000	0.00000000	1.01657681
0.43307087	0.00000000	0.00000000	0.00000000	1.01680703
0.44094488	0.00000000	0.00000000	0.00000000	1.01704439
0.44881890	0.00000000	0.00000000	0.00000000	1.01728844
0.45669291	0.00000000	0.00000000	0.00000000	1.01753868
0.46456693	0.00000000	0.00000000	0.00000000	1.01779457
0.47244094	0.00000000	0.00000000	0.00000000	1.01805553
0.48031496	0.00000000	0.00000000	0.00000000	1.01832095
0.48818898	0.00000000	0.00000000	0.00000000	1.01859018
0.49606299	0.00000000	0.00000000	0.00000000	1.01886251
0.50393701	0.00000000	0.00000000	0.00000000	1.01913722
0.51181102	0.00000000	0.00000000	0.00000000	1.01941354
0.51968504	0.00000000	0.00000000	0.00000000	1.01969068
0.52755906	0.00000000	0.00000000	0.00000000	1.01996780
0.53543307	0.00000000	0.00000000	0.00000000	1.02024406
0.54330709	0.00000000	0.00000000	0.00000000	1.02051858
0.55118110	0.00000000	0.00000000	0.00000000	1.02079046
0.55905512	0.00000000	0.00000000	0.00000000	1.02105878
0.56692913	0.00000000	0.00000000	0.00000000	1.02132263
0.57480315	0.00000000	0.00000000	0.00000000	1.02158106
0.58267717	0.00000000	0.00000000	0.00000000	1.02183316
0.59055118	0.00000000	0.00000000	0.00000000	1.02207799
0.59842520	0.00000000	0.00000000	0.00000000	1.02231463
0.60629921	0.00000000	0.00000000	0.00000000	1.02254218
0.61417323	0.00000000	0.00000000	0.00000000	1.02275977
0.62204724	0.00000000	0.00000000	0.00000000	1.02296653
0.62992126	0.00000000	0.00000000	0.00000000	1.02316165
0.63779528	0.00000000	0.00000000	0.00000000	1.02334434
0.64566929	0.00000000	0.00000000	0.00000000	1.02351388
0.65354331	0.00000000	0.00000000	0.00000000	1.02366957
0.66141732	0.00000000	0.00000000	0.00000000	1.02381079
0.66929134	0.00000000	0.00000000	0.00000000	1.02393699
0.67716535	0.00000000	0.00000000	0.00000000	1.02404765
0.68503937	0.00000000	0.00000000	0.00000000	1.02414237
0.69291339	0.00000000	0.00000000	0.00000000	1.02422079
0.70078740	0.00000000	0.00000000	0.00000000	1.02428265
0.70866142	0.00000000	0.00000000	0.00000000	1.02432777
0.71653543	0.00000000	0.00000000	0.00000000	1.02435608
0.72440945	0.00000000	0.00000000	0.00000000	1.02436756
0.73228346	0.00000000	0.00000000	0.00000000	1.02436232
0.74015748	0.00000000	0.00000000	0.00000000	1.02434054
0.74803150	0.00000000	0.00000000	0.00000000	1.02430253
0.75590551	0.00000000	0.00000000	0.00000000	1.02424865
0.76377953	0.00000000	0.00000000	0.00000000	1.02417941
0.77165354	0.00000000	0.00000000	0.00000000	1.02409537
0.77952756	0.00000000	0.00000000	0.00000000	1.02399721
0.78740157	0.00000000	0.00000000	0.00000000	1.02388570
0.79527559	0.00000000	0.00000000	0.00000000	1.02376171
0.80314961	0.00000000	0.00000000	0.00000000	1.02362618
0.81102362	0.00000000	0.00000000	0.00000000	1.02348016
0.81889764	0.00000000	0.00000000	0.00000000	1.02332477
0.82677165	0.00000000	0.00000000	0.00000000	1.02316122
0.83464567	0.00000000	0.00000000	0.00000000	1.02299078
0.84251969	0.00000000	0.00000000	0.00000000	1.02281483
0.85039370	0.00000000	0.00000000	0.00000000	1.02263479
0.85826772	0.00000000	0.00000000	0.00000000	1.02245218
0.86614173	0.00000000	0.00000000	0.00000000	1.02226855
0.87401575	0.00000000	0.00000000	0.00000000	1.02208556
0.88188976	0.00000000	0.00000000	0.00000000	1.02190488
0.88976378	0.00000000	0.00000000	0.00000000	1.02172829
0.89763780	0.00000000	0.00000000	0.00000000	1.02155759
0.90551181	0.00000000	0.00000000	0.00000000	1.02139466
0.91338583	0.00000000	0.00000000	0.00000000	1.02124139
0.92125984	0.00000000	0.00000000	0.00000000	1.02109974
0.92913386	0.00000000	0.00000000	0.00000000	1.02097168
0.93700787	0.00000000	0.00000000	0.00000000	1.02085915
0.94488189	0.00000000	0.00000000	0.00000000	1.02076404
0.95275591	0.00000000	0.00000000	0.00000000	1.02068807
0.96062992	0.00000000	0.00000000	0.00000000	1.02063262
0.96850394	0.00000000	0.00000000	0.00000000	1.02059838
0.97637795	0.00000000	0.00000000	0.00000000	1.02058475
0.98425197	0.00000000	0.00000000	0.00000000	1.02058870
0.99212598	0.00000000	0.00000000	0.00000000	1.02060272
1.00000000	0.00000000	0.00000000	0.00000000	1.02061095
0.00000000	0.00787402	0.00000000	0.00000000	1.01638065
0.00787402	0.00787402	0.00000719	-0.00000719	1.01638462
0.01574803	0.00787402	0.00002309	-0.00001189	1.01638275
0.02362205	0.00787402	0.00004155	-0.00001268	1.01635966
0.03149606	0.00787402	0.00005764	-0.00001059	1.01631402
0.03937008	0.00787402	0.00006790	-0.00000668	1.01624726
0.04724409	0.00787402	0.00007002	-0.00000170	1.01616207
0.05511811	0.00787402	0.00006260	0.00000387	1.01606155
0.06299213	0.00787402	0.00004483	0.00000970	1.01594881
0.07086614	0.00787402	0.00001637	0.00001558	1.01582680
0.07874016	0.00787402	-0.00002283	0.00002138	1.01569818
0.08661417	0.00787402	-0.00007258	0.00002700	1.01556534
0.09448819	0.00787402	-0.00013257	0.00003237	1.01543041
0.10236220	0.00787402	-0.00020235	0.00003746	1.01529526
0.11023622	0.00787402	-0.00028142	0.00004225	1.01516149
0.11811024	0.00787402	-0.00036922	0.00004671	1.01503052
0.12598425	0.00787402	-0.00046517	0.00005085	1.01490357
0.13385827	0.00787402	-0.00056870	0.00005466	1.01478166
0.14173228	0.00787402	-0.00067919	0.00005815	1.01466569
0.14960630	0.00787402	-0.00079608	0.00006133	1.01455641
0.15748031	0.00787402	-0.00091878	0.00006420	1.01445445
0.16535433	0.00787402	-0.00104674	0.00006678	1.01436034
0.17322835	0.00787402	-0.00117940	0.00006908	1.01427453
0.18110236	0.00787402	-0.00131627	0.00007111	1.01419738
0.18897638	0.00787402	-0.00145682	0.00007289	1.01412919
0.19685039	0.00787402	-0.00160059	0.00007442	1.01407022
0.20472441	0.00787402	-0.00174712	0.00007572	1.01402066
0.21259843	0.00787402	-0.00189596	0.00007680	1.01398067
0.22047244	0.00787402	-0.00204670	0.00007767	1.01395037
0.22834646	0.00787402	-0.00219893	0.00007834	1.01392988
0.23622047	0.00787402	-0.00235228	0.00007881	1.01391927
0.24409449	0.00787402	-0.00250635	0.00007910	1.01391859
0.25196850	0.00787402	-0.00266080	0.00007920	1.01392791
0.25984252	0.00787402	-0.00281527	0.00007914	1.01394725
0.26771654	0.00787402	-0.00296943	0.00007890	1.01397664
0.27559055	0.00787402	-0.00312294	0.00007850	1.01401610
0.28346457	0.00787402	-0.00327548	0.00007793	1.01406563
0.29133858	0.00787402	-0.00342673	0.00007720	1.01412523
0.29921260	0.00787402	-0.00357637	0.00007631	1.01419490
0.30708661	0.00787402	-0.00372408	0.00007527	1.01427463
0.31496063	0.00787402	-0.00386955	0.00007406	1.01436438
0.32283465	0.00787402	-0.00401247	0.00007270	1.01446412
0.33070866	0.00787402	-0.00415253	0.00007118	1.01457380
0.33858268	0.00787402	-0.00428941	0.00006950	1.01469337
0.34645669	0.00787402	-0.00442280	0.00006765	1.01482275
0.35433071	0.00787402	-0.00455238	0.00006565	1.01496183
0.36220472	0.00787402	-0.00467784	0.00006348	1.01511052
0.37007874	0.00787402	-0.00479886	0.00006115	1.01526868
0.37795276	0.00787402	-0.00491512	0.00005866	1.01543615
0.38582677	0.00787402	-0.00502631	0.00005600	1.01561274
0.39370079	0.00787402	-0.00513210	0.00005318	1.01579825
0.40157480	0.00787402	-0.00523220	0.00005019	1.01599244
0.40944882	0.00787402	-0.00532627	0.00004705	1.01619503
0.41732283	0.00787402	-0.00541402	0.00004374	1.01640572
0.42519685	0.00787402	-0.00549515	0.00004028	1.01662417
0.43307087	0.00787402	-0.00556935	0.00003667	1.01685001
0.44094488	0.00787402	-0.00563634	0.00003290	1.01708282
0.44881890	0.00787402	-0.00569584	0.00002900	1.01732216
0.45669291	0.00787402	-0.00574758	0.00002495	1.01756753
0.46456693	0.00787402	-0.00579132	0.00002078	1.01781840
0.47244094	0.00787402	-0.00582681	0.00001648	1.01807422
0.48031496	0.00787402	-0.00585384	0.00001207	1.01833436
0.48818898	0.00787402	-0.00587219	0.00000755	1.01859820
0.49606299	0.00787402	-0.00588170	0.00000295	1.01886505
0.50393701	0.00787402	-0.00588219	-0.00000174	1.01913419
0.51181102	0.00787402	-0.00587355	-0.00000649	1.01940488
0.51968504	0.00787402	-0.00585566	-0.00001129	1.01967633
0.52755906	0.00787402	-0.00582844	-0.00001613	1.01994774
0.53543307	0.00787402	-0.00579184	-0.00002099	1.02021826
0.54330709	0.00787402	-0.00574586	-0.00002585	1.02048705
0.55118110	0.00787402	-0.00569049	-0.00003070	1.02075322
0.55905512	0.00787402	-0.00562580	-0.00003552	1.02101589
0.56692913	0.00787402	-0.00555188	-0.00004029	1.02127414
0.57480315	0.00787402	-0.00546883	-0.00004499	1.02152708
0.58267717	0.00787402	-0.00537683	-0.00004959	1.02177379
0.59055118	0.00787402	-0.00527608	-0.00005409	1.02201337
0.59842520	0.00787402	-0.00516681	-0.00005845	1.02224492
0.60629921	0.00787402	-0.00504929	-0.00006266	1.02246757
0.61417323	0.00787402	-0.00492385	-0.00006670	1.02268045
0.62204724	0.00787402	-0.00479084	-0.00007054	1.02288274
0.62992126	0.00787402	-0.00465065	-0.00007417	1.02307364
0.63779528	0.00787402	-0.00450370	-0.00007757	1.02325238
0.64566929	0.00787402	-0.00435047	-0.00008072	1.02341826
0.65354331	0.00787402	-0.00419144	-0.00008360	1.02357060
0.66141732	0.00787402	-0.00402716	-0.00008620	1.02370882
0.66929134	0.00787402	-0.00385819	-0.00008849	1.02383234
0.67716535	0.00787402	-0.00368512	-0.00009046	1.02394071
0.68503937	0.00787402	-0.00350857	-0.00009211	1.02403351
0.69291339	0.00787402	-0.00332917	-0.00009341	1.02411041
0.70078740	0.00787402	-0.00314760	-0.00009436	1.02417115
0.70866142	0.00787402	-0.00296454	-0.00009495	1.02421557
0.71653543	0.00787402	-0.00278068	-0.00009517	1.02424359
0.72440945	0.00787402	-0.00259673	-0.00009502	1.02425522
0.73228346	0.00787402	-0.00241340	-0.00009449	1.02425056
0.74015748	0.00787402	-0.00223141	-0.00009358	1.02422979
0.74803150	0.00787402	-0.00205149	-0.00009230	1.02419322
0.75590551	0.00787402	-0.00187434	-0.00009064	1.02414121
0.76377953	0.00787402	-0.00170068	-0.00008861	1.02407425
0.77165354	0.00787402	-0.00153120	-0.00008622	1.02399291
0.77952756	0.00787402	-0.00136657	-0.00008347	1.02389785
0.78740157	0.00787402	-0.00120747	-0.00008039	1.02378984
0.79527559	0.00787402	-0.00105452	-0.00007698	1.02366970
0.80314961	0.00787402	-0.00090833	-0.00007325	1.02353839
0.81102362	0.00787402	-0.00076949	-0.00006923	1.02339692
0.81889764	0.00787402	-0.00063853	-0.00006493	1.02324638
0.82677165	0.00787402	-0.00051595	-0.00006038	1.02308797
0.83464567	0.00787402	-0.00040221	-0.00005559	1.02292293
0.84251969	0.00787402	-0.00029772	-0.00005060	1.02275260
0.85039370	0.00787402	-0.00020284	-0.00004544	1.02257838
0.85826772	0.00787402	-0.00011787	-0.00004012	1.02240172
0.86614173	0.00787402	-0.00004304	-0.00003470	1.02222417
0.87401575	0.00787402	0.00002148	-0.00002919	1.02204732
0.88188976	0.00787402	0.00007560	-0.00002365	1.02187280
0.88976378	0.00787402	0.00011930	-0.00001812	1.02170233
0.89763780	0.00787402	0.00015267	-0.00001265	1.02153764
0.90551181	0.00787402	0.00017590	-0.00000730	1.02138054
0.91338583	0.00787402	0.00018931	-0.00000214	1.02123286
0.92125984	0.00787402	0.00019334	0.00000275	1.02109645
0.92913386	0.00787402	0.00018863	0.00000727	1.02097315
0.93700787	0.00787402	0.00017600	0.00001129	1.02086478
0.94488189	0.00787402	0.00015652	0.00001465	1.02077308
0.95275591	0.00787402	0.00013159	0.00001713	1.02069957
0.96062992	0.00787402	0.00010298	0.00001845	1.02064544
0.96850394	0.00787402	0.00007294	0.00001824	1.02061123
0.97637795	0.00787402	0.00004426	0.00001601	1.02059630
0.98425197	0.00787402	0.00002031	0.00001137	1.02059811
0.99212598	0.00787402	0.00000467	0.00000468	1.02061095
1.00000000	0.00787402	0.00000000	0.00000000	1.02061918
0.00000000	0.01574803	0.00000000	0.00000000	1.01638226
0.00787402	0.01574803	0.00001193	-0.00002309	1.01638651
0.01574803	0.01574803	0.00003443	-0.00003435	1.01638464
0.02362205	0.01574803	0.00005829	-0.00003455	1.01636211
0.03149606	0.01574803	0.00007640	-0.00002635	1.01631956
0.03937008	0.01574803	0.00008351	-0.00001238	1.01625851
0.04724409	0.01574803	0.00007586	0.00000530	1.01618113
0.05511811	0.01574803	0.00005099	0.00002519	1.01608992
0.06299213	0.01574803	0.00000739	0.00004623	1.01598748
0.07086614	0.01574803	-0.00005570	0.00006766	1.01587631
0.07874016	0.01574803	-0.00013848	0.00008896	1.01575875
0.08661417	0.01574803	-0.00024075	0.00010974	1.01563695
0.09448819	0.01574803	-0.00036202	0.00012976	1.01551285
0.10236220	0.01574803	-0.00050158	0.00014884	1.01538817
0.11023622	0.01574803	-0.00065857	0.00016687	1.01526443
0.11811024	0.01574803	-0.00083203	0.00018376	1.01514296
0.12598425	0.01574803	-0.00102093	0.00019948	1.01502495
0.13385827	0.01574803	-0.00122421	0.00021402	1.01491138
0.14173228	0.01574803	-0.00144080	0.00022738	1.01480315
0.14960630	0.01574803	-0.00166960	0.00023959	1.01470098
0.15748031	0.01574803	-0.00190956	0.00025065	1.01460552
0.16535433	0.01574803	-0.00215962	0.00026062	1.01451730
0.17322835	0.01574803	-0.00241878	0.00026953	1.01443678
0.18110236	0.01574803	-0.00268604	0.00027742	1.01436434
0.18897638	0.01574803	-0.00296046	0.00028433	1.01430030
0.19685039	0.01574803	-0.00324111	0.00029030	1.01424492
0.20472441	0.01574803	-0.00352711	0.00029537	1.01419842
0.21259843	0.01574803	-0.00381761	0.00029958	1.01416098
0.22047244	0.01574803	-0.00411180	0.00030297	1.01413274
0.22834646	0.01574803	-0.00440889	0.00030557	1.01411382
0.23622047	0.01574803	-0.00470813	0.00030742	1.01410432
0.24409449	0.01574803	-0.00500878	0.00030852	1.01410431
0.25196850	0.01574803	-0.00531014	0.00030892	1.01411384
0.25984252	0.01574803	-0.00561151	0.00030863	1.01413298
0.26771654	0.01574803	-0.00591223	0.00030767	1.01416174
0.27559055	0.01574803	-0.00621164	0.00030605	1.01420016
0.28346457	0.01574803	-0.00650910	0.00030379	1.01424825
0.29133858	0.01574803	-0.00680397	0.00030088	1.01430602
0.29921260	0.01574803	-0.00709563	0.00029735	1.01437346
0.30708661	0.01574803	-0.00738345	0.00029318	1.01445057
0.31496063	0.01574803	-0.00766682	0.00028839	1.01453731
0.32283465	0.01574803	-0.00794512	0.00028298	1.01463366
0.33070866	0.01574803	-0.00821774	0.00027694	1.01473957
0.33858268	0.01574803	-0.00848405	0.00027027	1.01485498
0.34645669	0.01574803	-0.00874345	0.00026297	1.01497982
0.35433071	0.01574803	-0.00899532	0.00025504	1.01511398
0.36220472	0.01574803	-0.00923905	0.00024648	1.01525737
0.37007874	0.01574803	-0.00947401	0.00023728	1.01540984
0.37795276	0.01574803	-0.00969959	0.00022745	1.01557125
0.38582677	0.01574803	-0.00991518	0.00021699	1.01574141
0.39370079	0.01574803	-0.01012016	0.00020589	1.01592012
0.40157480	0.01574803	-0.01031394	0.00019417	1.01610713
0.40944882	0.01574803	-0.01049590	0.00018183	1.01630220
0.41732283	0.01574803	-0.01066546	0.00016887	1.01650500
0.42519685	0.01574803	-0.01082205	0.00015532	1.01671523
0.43307087	0.01574803	-0.01096509	0.00014119	1.01693251
0.44094488	0.01574803	-0.01109404	0.00012649	1.01715644
0.44881890	0.01574803	-0.01120838	0.00011125	1.01738659
0.45669291	0.01574803	-0.01130759	0.00009548	1.01762248
0.46456693	0.01574803	-0.01139120	0.00007923	1.01786361
0.47244094	0.01574803	-0.01145876	0.00006252	1.01810942
0.48031496	0.01574803	-0.01150986	0.00004538	1.01835934
0.48818898	0.01574803	-0.01154413	0.00002786	1.01861273
0.49606299	0.01574803	-0.01156123	0.00001000	1.01886897
0.50393701	0.01574803	-0.01156086	-0.00000815	1.01912734
0.51181102	0.01574803	-0.01154278	-0.00002654	1.01938714
0.51968504	0.01574803	-0.01150681	-0.00004511	1.01964761
0.52755906	0.01574803	-0.01145280	-0.00006381	1.01990798
0.53543307	0.01574803	-0.01138068	-0.00008258	1.02016746
0.54330709	0.01574803	-0.01129042	-0.00010135	1.02042522
0.55118110	0.01574803	-0.01118207	-0.00012005	1.02068041
0.55905512	0.01574803	-0.01105574	-0.00013862	1.02093220
0.56692913	0.01574803	-0.01091161	-0.00015697	1.02117972
0.57480315	0.01574803	-0.01074992	-0.00017504	1.02142210
0.58267717	0.01574803	-0.01057100	-0.00019275	1.02165848
0.59055118	0.01574803	-0.01037524	-0.00021003	1.02188799
0.59842520	0.01574803	-0.01016310	-0.00022679	1.02210979
0.60629921	0.01574803	-0.00993513	-0.00024295	1.02232304
0.61417323	0.01574803	-0.00969192	-0.00025845	1.02252692
0.62204724	0.01574803	-0.00943417	-0.00027321	1.02272065
0.62992126	0.01574803	-0.00916264	-0.00028714	1.02290346
0.63779528	0.01574803	-0.00887814	-0.00030018	1.02307465
0.64566929	0.01574803	-0.00858158	-0.00031226	1.02323353
0.65354331	0.01574803	-0.00827390	-0.00032330	1.02337948
0.66141732	0.01574803	-0.00795614	-0.00033325	1.02351193
0.66929134	0.01574803	-0.00762936	-0.00034204	1.02363036
0.67716535	0.01574803	-0.00729470	-0.00034963	1.02373433
0.68503937	0.01574803	-0.00695335	-0.00035595	1.02382345
0.69291339	0.01574803	-0.00660652	-0.00036096	1.02389743
0.70078740	0.01574803	-0.00625550	-0.00036463	1.02395601
0.70866142	0.01574803	-0.00590156	-0.00036692	1.02399907
0.71653543	0.01574803	-0.00554605	-0.00036781	1.02402652
0.72440945	0.01574803	-0.00519030	-0.00036728	1.02403840
0.73228346	0.01574803	-0.00483568	-0.00036531	1.02403479
0.74015748	0.01574803	-0.00448356	-0.00036191	1.02401591
0.74803150	0.01574803	-0.00413530	-0.00035707	1.02398202
0.75590551	0.01574803	-0.00379226	-0.00035081	1.02393352
0.76377953	0.01574803	-0.00345579	-0.00034315	1.02387086
0.77165354	0.01574803	-0.00312721	-0.00033411	1.02379459
0.77952756	0.01574803	-0.00280781	-0.00032373	1.02370537
0.78740157	0.01574803	-0.00249884	-0.00031205	1.02360392
0.79527559	0.01574803	-0.00220151	-0.00029913	1.02349105
0.80314961	0.01574803	-0.00191697	-0.00028503	1.02336768
0.81102362	0.01574803	-0.00164632	-0.00026981	1.02323476
0.81889764	0.01574803	-0.00139057	-0.00025354	1.02309337
0.82677165	0.01574803	-0.00115067	-0.00023632	1.02294463
0.83464567	0.01574803	-0.00092748	-0.00021823	1.02278974
0.84251969	0.01574803	-0.00072178	-0.00019937	1.02262997
0.85039370	0.01574803	-0.00053421	-0.00017986	1.02246666
0.85826772	0.01574803	-0.00036535	-0.00015981	1.02230119
0.86614173	0.01574803	-0.00021560	-0.00013935	1.02213502
0.87401575	0.01574803	-0.00008529	-0.00011863	1.02196965
0.88188976	0.01574803	0.00002545	-0.00009782	1.02180663
0.88976378	0.01574803	0.00011663	-0.00007707	1.02164755
0.89763780	0.01574803	0.00018844	-0.00005660	1.02149403
0.90551181	0.01574803	0.00024128	-0.00003664	1.02134774
0.91338583	0.01574803	0.00027578	-0.00001744	1.02121035
0.92125984	0.01574803	0.00029282	0.00000068	1.02108352
0.92913386	0.01574803	0.00029362	0.00001735	1.02096891
0.93700787	0.01574803	0.00027974	0.00003211	1.02086809
0.94488189	0.01574803	0.00025317	0.00004440	1.02078252
0.95275591	0.01574803	0.00021643	0.00005354	1.02071345
0.96062992	0.01574803	0.00017259	0.00005865	1.02066180
0.96850394	0.01574803	0.00012542	0.00005872	1.02062794
0.97637795	0.01574803	0.00007939	0.00005263	1.02061146
0.98425197	0.01574803	0.00003956	0.00003959	1.02061091
0.99212598	0.01574803	0.00001134	0.00002031	1.02062380
1.00000000	0.01574803	0.00000000	0.00000000	1.02063324
0.00000000	0.02362205	0.00000000	0.00000000	1.01640564
0.00787402	0.02362205	0.00001278	-0.00004162	1.01640967
0.01574803	0.02362205	0.00003478	-0.00005825	1.01640718
0.02362205	0.02362205	0.00005492	-0.00005465	1.01638457
0.03149606	0.02362205	0.00006502	-0.00003582	1.01634360
0.03937008	0.02362205	0.00005889	-0.00000614	1.01628608
0.04724409	0.02362205	0.00003204	0.00003082	1.01621401
0.05511811	0.02362205	-0.00001865	0.00007234	1.01612954
0.06299213	0.02362205	-0.00009516	0.00011638	1.01603488
0.07086614	0.02362205	-0.00019858	0.00016145	1.01593220
0.07874016	0.02362205	-0.00032927	0.00020643	1.01582356
0.08661417	0.02362205	-0.00048709	0.00025054	1.01571085
0.09448819	0.02362205	-0.00067144	0.00029320	1.01559584
0.10236220	0.02362205	-0.00088145	0.00033401	1.01548010
0.11023622	0.02362205	-0.00111601	0.00037270	1.01536503
0.11811024	0.02362205	-0.00137386	0.00040907	1.01525190
0.12598425	0.02362205	-0.00165361	0.00044303	1.01514180
0.13385827	0.02362205	-0.00195383	0.00047452	1.01503570
0.14173228	0.02362205	-0.00227304	0.00050353	1.01493444
0.14960630	0.02362205	-0.00260975	0.00053009	1.01483874
0.15748031	0.02362205	-0.00296247	0.00055422	1.01474923
0.16535433	0.02362205	-0.00332974	0.00057601	1.01466643
0.17322835	0.02362205	-0.00371011	0.00059550	1.01459082
0.18110236	0.02362205	-0.00410219	0.00061279	1.01452276
0.18897638	0.02362205	-0.00450462	0.00062795	1.01446259
0.19685039	0.02362205	-0.00491608	0.00064107	1.01441058
0.20472441	0.02362205	-0.00533529	0.00065223	1.01436696
0.21259843	0.02362205	-0.00576104	0.00066150	1.01433191
0.22047244	0.02362205	-0.00619213	0.00066895	1.01430560
0.22834646	0.02362205	-0.00662742	0.00067467	1.01428816
0.23622047	0.02362205	-0.00706579	0.00067870	1.01427968
0.24409449	0.02362205	-0.00750619	0.00068110	1.01428026
0.25196850	0.02362205	-0.00794756	0.00068193	1.01428997
0.25984252	0.02362205	-0.00838889	0.00068123	1.01430886
0.26771654	0.02362205	-0.00882920	0.00067903	1.01433697
0.27559055	0.02362205	-0.00926751	0.00067536	1.01437434
0.28346457	0.02362205	-0.00970287	0.00067026	1.01442098
0.29133858	0.02362205	-0.01013435	0.00066373	1.01447691
0.29921260	0.02362205	-0.01056101	0.00065579	1.01454214
0.30708661	0.02362205	-0.01098194	0.00064646	1.01461665
0.31496063	0.02362205	-0.01139622	0.00063573	1.01470042
0.32283465	0.02362205	-0.01180295	0.00062362	1.01479342
0.33070866	0.02362205	-0.01220122	0.00061011	1.01489562
0.33858268	0.02362205	-0.01259013	0.00059521	1.01500694
0.34645669	0.02362205	-0.01296877	0.00057893	1.01512733
0.35433071	0.02362205	-0.01333624	0.00056124	1.01525669
0.36220472	0.02362205	-0.01369164	0.00054217	1.01539490
0.37007874	0.02362205	-0.01403407	0.00052169	1.01554185
0.37795276	0.02362205	-0.01436264	0.00049983	1.01569738
0.38582677	0.02362205	-0.01467644	0.00047657	1.01586132
0.39370079	0.02362205	-0.01497460	0.00045193	1.01603346
0.40157480	0.02362205	-0.01525624	0.00042593	1.01621357
0.40944882	0.02362205	-0.01552050	0.00039858	1.01640140
0.41732283	0.02362205	-0.01576652	0.00036989	1.01659666
0.42519685	0.02362205	-0.01599347	0.00033991	1.01679903
0.43307087	0.02362205	-0.01620055	0.00030866	1.01700815
0.44094488	0.02362205	-0.01638697	0.00027619	1.01722363
0.44881890	0.02362205	-0.01655199	0.00024254	1.01744507
0.45669291	0.02362205	-0.01669488	0.00020777	1.01767199
0.46456693	0.02362205	-0.01681496	0.00017195	1.01790391
0.47244094	0.02362205	-0.01691162	0.00013515	1.01814031
0.48031496	0.02362205	-0.01698426	0.00009744	1.01838061
0.48818898	0.02362205	-0.01703236	0.00005892	1.01862422
0.49606299	0.02362205	-0.01705545	0.00001968	1.01887052
0.50393701	0.02362205	-0.01705313	-0.00002018	1.01911884
0.51181102	0.02362205	-0.01702506	-0.00006054	1.01936849
0.51968504	0.02362205	-0.01697100	-0.00010127	1.01961876
0.52755906	0.02362205	-0.01689075	-0.00014226	1.01986889
0.53543307	0.02362205	-0.01678422	-0.00018337	1.02011813
0.54330709	0.02362205	-0.01665140	-0.00022446	1.02036569
0.55118110	0.02362205	-0.01649238	-0.00026538	1.02061076
0.55905512	0.02362205	-0.01630733	-0.00030598	1.02085252
0.56692913	0.02362205	-0.01609652	-0.00034611	1.02109016
0.57480315	0.02362205	-0.01586032	-0.00038559	1.02132285
0.58267717	0.02362205	-0.01559922	-0.00042427	1.02154975
0.59055118	0.02362205	-0.01531378	-0.00046198	1.02177004
0.59842520	0.02362205	-0.01500469	-0.00049856	1.02198292
0.60629921	0.02362205	-0.01467273	-0.00053384	1.02218758
0.61417323	0.02362205	-0.01431881	-0.00056765	1.02238324
0.62204724	0.02362205	-0.01394389	-0.00059982	1.02256916
0.62992126	0.02362205	-0.01354909	-0.00063020	1.02274461
0.63779528	0.02362205	-0.01313560	-0.00065863	1.02290891
0.64566929	0.02362205	-0.01270469	-0.00068496	1.02306142
0.65354331	0.02362205	-0.01225776	-0.00070904	1.02320154
0.66141732	0.02362205	-0.01179626	-0.00073074	1.02332874
0.66929134	0.02362205	-0.01132175	-0.00074992	1.02344253
0.67716535	0.02362205	-0.01083586	-0.00076647	1.02354248
0.68503937	0.02362205	-0.01034027	-0.00078029	1.02362824
0.69291339	0.02362205	-0.00983675	-0.00079127	1.02369952
0.70078740	0.02362205	-0.00932711	-0.00079933	1.02375611
0.70866142	0.02362205	-0.00881320	-0.00080440	1.02379787
0.71653543	0.02362205	-0.00829693	-0.00080643	1.02382474
0.72440945	0.02362205	-0.00778022	-0.00080538	1.02383676
0.73228346	0.02362205	-0.00726502	-0.00080123	1.02383404
0.74015748	0.02362205	-0.00675327	-0.00079396	1.02381676
0.74803150	0.02362205	-0.00624694	-0.00078359	1.02378520
0.75590551	0.02362205	-0.00574796	-0.00077014	1.02373975
0.76377953	0.02362205	-0.00525825	-0.00075366	1.02368084
0.77165354	0.02362205	-0.00477970	-0.00073420	1.02360903
0.77952756	0.02362205	-0.00431415	-0.00071185	1.02352492
0.78740157	0.02362205	-0.00386339	-0.00068669	1.02342924
0.79527559	0.02362205	-0.00342912	-0.00065885	1.02332276
0.80314961	0.02362205	-0.00301301	-0.00062844	1.02320635
0.81102362	0.02362205	-0.00261659	-0.00059563	1.02308096
0.81889764	0.02362205	-0.00224132	-0.00056058	1.02294760
0.82677165	0.02362205	-0.00188854	-0.00052346	1.02280734
0.83464567	0.02362205	-0.00155947	-0.00048448	1.02266135
0.84251969	0.02362205	-0.00125518	-0.00044387	1.02251082
0.85039370	0.02362205	-0.00097662	-0.00040187	1.02235704
0.85826772	0.02362205	-0.00072456	-0.00035873	1.02220132
0.86614173	0.02362205	-0.00049957	-0.00031475	1.02204504
0.87401575	0.02362205	-0.00030207	-0.00027025	1.02188962
0.88188976	0.02362205	-0.00013225	-0.00022557	1.02173650
0.88976378	0.02362205	0.00000996	-0.00018111	1.02158719
0.89763780	0.02362205	0.00012484	-0.00013730	1.02144319
0.90551181	0.02362205	0.00021300	-0.00009463	1.02130604
0.91338583	0.02362205	0.00027535	-0.00005368	1.02117726
0.92125984	0.02362205	0.00031317	-0.00001509	1.02105839
0.92913386	0.02362205	0.00032817	0.00002035	1.02095088
0.93700787	0.02362205	0.00032251	0.00005174	1.02085614
0.94488189	0.02362205	0.00029890	0.00007796	1.02077545
0.95275591	0.02362205	0.00026068	0.00009772	1.02070992
0.96062992	0.02362205	0.00021184	0.00010946	1.02066036
0.96850394	0.02362205	0.00015712	0.00011144	1.02062726
0.97637795	0.02362205	0.00010200	0.00010187	1.02061068
0.98425197	0.02362205	0.00005265	0.00007942	1.02061027
0.99212598	0.02362205	0.00001598	0.00004424	1.02062571
1.00000000	0.02362205	0.00000000	0.00000000	1.02063736
0.00000000	0.03149606	0.00000000	0.00000000	1.01645344
0.00787402	0.03149606	0.00001077	-0.00005787	1.01645557
0.01574803	0.03149606	0.00002672	-0.00007649	1.01644986
0.02362205	0.03149606	0.00003625	-0.00006479	1.01642538
0.03149606	0.03149606	0.00003070	-0.00003032	1.01638420
0.03937008	0.03149606	0.00000356	0.00002059	1.01632821
0.04724409	0.03149606	-0.00005001	0.00008284	1.01625928
0.05511811	0.03149606	-0.00013342	0.00015239	1.01617934
0.06299213	0.03149606	-0.00024891	0.00022616	1.01609030
0.07086614	0.03149606	-0.00039777	0.00030177	1.01599405
0.07874016	0.03149606	-0.00058046	0.00037747	1.01589239
0.08661417	0.03149606	-0.00079686	0.00045191	1.01578702
0.09448819	0.03149606	-0.00104633	0.00052413	1.01567951